 --invoking executable--
/home/james.thorpe/bin/cfour17-Feb15/bin/xjoda


   *************************************************************************
         <<<     CCCCCC     CCCCCC   |||     CCCCCC     CCCCCC   >>>
       <<<      CCC        CCC       |||    CCC        CCC         >>>
      <<<      CCC        CCC        |||   CCC        CCC            >>>
    <<<        CCC        CCC        |||   CCC        CCC              >>>
      <<<      CCC        CCC        |||   CCC        CCC            >>>
       <<<      CCC        CCC       |||    CCC        CCC         >>>
         <<<     CCCCCC     CCCCCC   |||     CCCCCC     CCCCCC   >>>
   *************************************************************************

     ****************************************************************
     * CFOUR Coupled-Cluster techniques for Computational Chemistry *
     ****************************************************************
 

   Department of Chemistry                Institut fuer Physikalische Chemie
   University of Texas at Austin          Universitaet Mainz
   Austin, TX  78712, USA                 D-55099 Mainz, Germany
 
                       Version 1.2
 
                     login4.ufhpc                                      
                     Wed Oct 31 09:38:57 EDT 2018                      
                     integer*8 version is running
 
********************************************************************************
*                          Input from ZMAT file                                *
********************************************************************************
CO2                                                                             
X                                                                               
C 1 R0                                                                          
O 2 R 1 A90                                                                     
O 2 R 1 A90 3 D180                                                              
                                                                                
R0 = 0.5                                                                        
R = 0.8                                                                         
A90 = 90.0000000000000000                                                       
D180 = 180.0000000000000000                                                     
                                                                                
*CFOUR(CALC=MP2,BASIS=STO-3G                                                    
FROZEN_CORE=OFF,SYMM=OFF)                                                       
********************************************************************************
    -------------------------------------------------------------------
                    CFOUR Control Parameters 
    -------------------------------------------------------------------
        External           Internal           Value            Units
          Name               Name
    -------------------------------------------------------------------
       ABCDTYPE             IABCDT         STANDARD    [  0]    ***   
       ANHARMONIC           IANHAR         OFF         [  0]    ***   
       ANH_ALGORIT          IANALG         STANDARD    [  0]    ***   
       ANH_DERIVAT          IANDER         SECOND      [  1]    ***   
       ANH_MODE             ANHMOD         VIBRATION   [  0]    ***   
       ANH_STEPSIZ          ICUBST             50000          x 10-6  
       ANH_SYMMETR          IANHSM         ABELIAN     [  0]    ***   
       AO_LADDERS           IAOLAD         SINGLEPASS  [  1]    ***   
       AV_SCF               IAVSCF         OFF         [  0]    ***   
       BASIS                IBASIS         STO-3G      [  2]    ***   
       BOTHVECTORS          BOTHVC         OFF         [  0]    ***   
       BOX_POTENT           IPIAB          OFF         [  0]    ***   
       BREIT                IBREIT         OFF         [  0]    ***   
       BRUCK_CONV           IBRTOL          10D-  4             ***   
       BRUECKNER            IBRKNR         OFF         [  0]    ***   
       BUFFERSIZE           IBUFFS              4096            ***   
       CACHE_RECS           ICHREC             10               ***   
       CALCLEVEL            ICLLVL         MBPT(2)     [  1]    ***   
       CAS_GECCO            ICMRCC         OFF         [  0]    ***   
       CAS_GUESS            ICGUES         CANONICAL   [  0]    ***   
       CAS_INPUT            ICSINP         ORBITALS    [  0]    ***   
       CAS_ITMAX            ICITMX          10D- 50           cycles  
       CAS_JACDAV           ICJDAV         OFF         [  0]    ***   
       CAS_MICMAX           ICMIMN          10D- 10             ***   
       CAS_MICMIN           ICMIMX          10D-  2             ***   
       CAS_MICRO            ICSALG         ILU/JACOBI  [  0]    ***   
       CAS_MITMAX           ICMIMX          10D-100           cycles  
       CAS_MMAX             ICMMAX          10D- 50             ***   
       CAS_PRINT            ICPRT           10D-  0             ***   
       CCORBOPT             ICCORB         OFF         [  0]  x 0.01  
       CC_CONV              ICCCNV          10D-  7             ***   
       CC_EXPORDER          ICCEOR              0               ***   
       CC_EXTRAPOL          ICCEXT         DIIS        [  1]    ***   
       CC_GUESS             ICCGES         MP2         [  0]    ***   
       CC_MAXCYC            ICCCYC              0              cycles 
       CC_PROGRAM           ICCPRO         VCC         [  0]    ***   
       CHARGE               ICHRGE              0               ***   
       CHOLESKY             ICHOLE         OFF         [  0]    ***   
       CIS_CONV             ICISTL              5               ***   
       COMM_SIZE            IPSIZE            ***               ***   
       CONSTANT             ICONST         OLD         [  1]    ***   
       CONTINUUM            ICONTU         NONE        [  0]    ***   
       CONTRACTION          ICNTYP         GENERAL     [  1]    ***   
       COORDINATES          ICOORD         INTERNAL    [  0]    ***   
       CPHF_CONVER          ICPHFT          10D- 16             ***   
       CPHF_MAXCYC          ICPHFC             64              cycles 
       CUBIC                ICUBIC         OFF         [  0]    ***   
       CURVILINEAR          ICURVY         OFF         [  0]    ***   
       CV_ELEMENT           ICVELM              0               ***   
       CV_ORBITALS          ICVORB      NONE         
       CV_SEPARATE          ICVSEP         OFF         [  0]    ***   
       DBOC                 IDBOC          OFF         [  0]    ***   
       DCT                  IDCT           OFF         [  0]    ***   
       DERIV_LEV            IDRLVL         ZERO        [  0]    ***   
       DEVMEM_SIZE          IDVMEM          50000000           MByte  
       DIAG_MRCC            IEOMST          10D-  0             ***   
       DIFF_TYPE            IDIFTY         RELAXED     [  0]    ***   
       DIRECT               IDIRCT         OFF         [  0]    ***   
       DROPMO               IDRPMO      NONE         
       ECP                  IECP           OFF         [  0]    ***   
       EIGENVECTOR          IVEC                1               ***   
       EL_ANHARM            IELANH         OFF         [  0]    ***   
       EOMFOLLOW            IEOMSR         ENERGY      [  0]    ***   
       EOMIP                IEOMIP         OFF         [  0]    ***   
       EOMLEVEL             HBARFM         SAME        [  0]    ***   
       EOM_MRCC             IMRCCE         NEW         [  1]    ***   
       EOM_NONIT            EOMNON         OFF         [  0]    ***   
       EOM_NSING            IEOMSI          10D-  0             ***   
       EOM_NSTATES          IMRCCD         DAVIDSON    [  0]    ***   
       EOM_NTRIP            IEOMTR          10D-  0             ***   
       EOM_ORDER            IEXORD         ENERGY      [  0]    ***   
       EOM_PROPSTA          IEOMST              0               ***   
       ESTATE_CONV          IEXTOL          10D-  5             ***   
       ESTATE_DIAG          IEXDIG         ITERATIVE   [  0]    ***   
       ESTATE_LOCK          IESLOC         ON          [  1]    ***   
       ESTATE_MAXC          IEXMXC             40               ***   
       ESTATE_PROP          IEXPRP         OFF         [  0]    ***   
       EVAL_HESS            IRECAL              0            # of cyc.
       EXCITATION           IEXCIT              0               ***   
       EXCITE               IEXCIT         NONE        [  0]    ***   
       EXTERN_POT           IEXPOT         OFF         [  0]    ***   
       FCGRADNEW            IFCGNW         OFF         [  0]    ***   
       FC_FIELD             IFINFC              0             x 10-6  
       FD_CALTYPE           IFDCAL         GRADONLY    [  0]    ***   
       FD_PROJECT           IFDPRJ         OFF         [  1]    ***   
       FD_STEPSIZE          IDISFD              0            10-4 bohr
       FD_USEGROUP          IFDGRP         FULL        [  0]    ***   
       FILE_RECSIZ          IFLREC              4096           words  
       FINITE_PERT          IFIPER              0             x 10-6  
       FIXGEOM              IFIXGM         OFF         [  0]    ***   
       FOCK                 IFOCK          AO          [  1]    ***   
       FREQ_ALGORI          IVIALG         STANDARD    [  0]    ***   
       FROZEN_CORE          IFROCO         OFF         [  0]    ***   
       FROZEN_VIRT          IFROVI         OFF         [  0]    ***   
       GAMMA_ABCD           IGABCD         STORE       [  0]    ***   
       GAMMA_ABCI           IGABCI         STORE       [  0]    ***   
       GENBAS_1             IGNBS1              0               ***   
       GENBAS_2             IGNBS2              0               ***   
       GENBAS_3             IGNBS3              0               ***   
       GENBAS_4             IGNBS4              0               ***   
       GEO_CONV             ICONTL              5              H/bohr 
       GEO_MAXCYC           IOPTCY             50               ***   
       GEO_MAXSTEP          IMXSTP            300            millibohr
       GEO_METHOD           INR            SINGLE_POINT[  5]    ***   
       GIAO                 IGIAO          OFF         [  1]    ***   
       GIMIC                IGIMIC         OFF         [  0]    ***   
       GRID                 IGRID          OFF         [  0]    ***   
       GRID_ALGO            IGALGO         SERIAL      [  0]    ***   
       GUESS                IGUESS         MOREAD      [  0]    ***   
       HBAR                 IHBAR          OFF         [  0]    ***   
       HESS_TYPE            IHESTP         SCF         [  0]    ***   
       HF2_FILE             IHF2Fl         USE         [  1]    ***   
       HFSTABILITY          ISTABL         OFF         [  0]    ***   
       INCORE               INCORE         OFF         [  0]    ***   
       INPUT_MRCC           IMRCC          ON          [  1]    ***   
       INTEGRALS            INTTYP         VMOL        [  1]    ***   
       JODA_PRINT           IJPRNT              0               ***   
       KEYWORD_OUT          IDMPKW         NO          [  0]    ***   
       LINDEP_TOL           ILINDP              8               ***   
       LINEQ_CONV           IZTACN          10D-  7           cycles  
       LINEQ_EXPOR          ILMAXD              5               ***   
       LINEQ_MAXCY          ILMAXC            100               ***   
       LINEQ_TYPE           ILTYPE         DIIS        [  1]    ***   
       LOCK_ORBOCC          ILOCOC         OFF         [  0]    ***   
       MEMORY_SIZE          IMEMSZ         100000000           words  
       MEM_UNIT             IMEMU          INTEGERWORDS[  0]    ***   
       MRCC                 IMRCCC         OFF         [  0]    ***   
       MULTIPLICTY          IMULTP              1               ***   
       NACOUPLING           IVCOUP         OFF         [  0]    ***   
       NEGEVAL              IDIE           ABORT       [  0]    ***   
       NEWNORM              INEWNO         OFF         [  0]    ***   
       NON-HF               INONHF         OFF         [  0]    ***   
       NTOP_TAMP            ITOPT2             15               ***   
       NUC_MODEL            INUCMO         POINT       [  0]    ***   
       OCCUPATION           IOCCU   ESTIMATED BY SCF 
       OPEN-SHELL           IOPEN          SPIN-ORBITAL[  0]    ***   
       OPTVIB               IOPTVB         OFF         [  0]    ***   
       ORBITALS             IORBTP         STANDARD    [  0]    ***   
       PARALLEL             IPARAL         ON          [  1]    ***   
       PARA_INT             IPINTS         ON          [  1]    ***   
       PARA_PRINT           IPPRIN              0               ***   
       PERT_ORB             IPTORB         STANDARD    [  0]    ***   
       POINTS               IGRDFD              0               ***   
       PRINT                IPRNT               0               ***   
       PROPS                IPROPS         OFF         [  0]    ***   
       PROP_INTEGR          IINTYP         INTERNAL    [  0]    ***   
       PSI                  IPSI           OFF         [  0]    ***   
       QC_ALG               IQCALG         FLM         [  0]    ***   
       QC_LINALG            IQCLIN         TRIDIAG     [  2]    ***   
       QC_MAXCYC            IQCMAX          10D-100           cycles  
       QC_MAXSCFCY          IQCMSC          10D- 15           cycles  
       QC_RTRUST            IQCRTR          10D-  0           x 10-3  
       QC_SKIPSCF           IQCSKI         OFF         [  0]    ***   
       QC_START             IQCSTA          10D-  1             ***   
       QRHFGUESS            IQGUES         OFF         [  0]    ***   
       QUARTIC              IQUART         OFF         [  0]    ***   
       RAMAN_INT            IRAMIN         OFF         [  0]    ***   
       RAMAN_ORB            IRAMRE         UNRELAXED   [  0]    ***   
       RDO                  IRDOFM         OFF         [  0]    ***   
       REDUCE_REPR          REDREP         Ir          [  0]    ***   
       REFERENCE            IREFNC         RHF         [  0]    ***   
       RELATIVIST           IRELAT         OFF         [  0]    ***   
       RELAX_DENS           IRDENS         OFF         [  0]    ***   
       RESET_FLAGS          IRESET         OFF         [  0]    ***   
       RESTART_CC           ICCRES         OFF         [  0]    ***   
       ROT_EVEC             ROTVEC              0               ***   
       SAVE_INTS            ISVINT         OFF         [  0]    ***   
       SCALE_ON             ISTCRT              0               ***   
       SCF_CONV             ISCFCV          10D-  7             ***   
       SCF_DAMPING          IDAMP               0             x 10-3  
       SCF_EXPORDE          IRPPOR              6               ***   
       SCF_EXPSTAR          IRPPLS              8               ***   
       SCF_EXTRAPO          IRPP           ON          [  1]    ***   
       SCF_MAXCYC           ISCFCY            150              cycles 
       SCF_NOSTOP           ISCFST         OFF         [  0]    ***   
       SCF_PRINT            ISCFPR              0               ***   
       SCF_PROG             ISCFPR         SCF         [  0]    ***   
       SD_FIELD             IFINSD              0             x 10-6  
       SOPERT               IPERSO         OFF         [  0]    ***   
       SPHERICAL            IDFGHI         ON          [  1]    ***   
       SPINORBIT            ISOCAL         OFF         [  0]    ***   
       SPINROTATIO          ISRCON         OFF         [  0]    ***   
       SPIN_FLIP            ISPFLP         OFF         [  0]    ***   
       SPIN_ORBIT           ISPORB         OFF         [  0]    ***   
       SPIN_SCAL            ISCSMP         OFF         [  0]    ***   
       STEEPSCALE           ISTPSC              1000          x 10-3  
       SUBGROUP             ISUBGP         DEFAULT     [  0]    ***   
       SUBGRPAXIS           ISBXYZ         X           [  0]    ***   
       SYMMETRY             ISYM           OFF         [  1]    ***   
       SYM_CHECK            ISYMCK         OVERRIDE    [  1]    ***   
       T3_EXTRAPOL          IT3EXT         OFF         [  0]    ***   
       T4_EXTRAPOL          IT4EXP         OFF         [  0]    ***   
       TAMP_SUM             IEVERY              0               ***   
       TESTSUITE            ITESTS         OFF         [  0]    ***   
       THERMOCH             ITHERM         OFF         [  0]    ***   
       TOL_CHOLESK          ITOLCH          10D-  4             ***   
       TRANGRAD             IRESRM         OFF         [  0]    ***   
       TRANS_INV            ITRAIN         USE         [  0]    ***   
       TREAT_PERT           ITREAT         SIMULTANEOUS[  0]    ***   
       TRIP_ALGORI          ITRALG         NORMAL      [  0]    ***   
       UIJ_THRESHO          IUIJTH              1               ***   
       UNITS                IUNITS         ANGSTROM    [  0]    ***   
       UNOS                 IUNOS          OFF         [  0]    ***   
       UPDATE_HESS          IHUPDT         ON          [  1]    ***   
       VIBPHASE             ISETPH         STANDARD    [  0]    ***   
       VIBRATION            IVIB           NO          [  0]    ***   
       VIB_ALGORIT          IGEALG         STANDARD    [  0]    ***   
       VNATORB              IVNORB         OFF         [  0]    ***   
       VTRAN                IVTRAN         FULL/PARTIAL[  0]    ***   
       X2CKEY               IX2CKE         MOLVDINT    [  0]    ***   
       XFIELD               IXEFLD              0             x 10-6  
       XFORM_TOL            IXFTOL          10D- 11             ***   
       YFIELD               IYEFLD              0             x 10-6  
       ZFIELD               IZEFLD              0             x 10-6  
       ZSCALE_EXP           IZEXPS         OFF         [  0]    ***   
    -------------------------------------------------------------------
   4 entries found in Z-matrix 
   Job Title : CO2                                                                             
   There are  4 unique internal coordinates.
   Of these,  0 will be optimized.
   User supplied Z-matrix: 
--------------------------------------------------------------------------------
       SYMBOL    BOND      LENGTH    ANGLE     ANGLE     DIHED     ANGLE
                  TO      (ANGST)    WRT      (DEG)      WRT      (DEG)
--------------------------------------------------------------------------------
        X    
        C          1         R0   
        O          2         R          1        A90  
        O          2         R          1        A90        3        D180 
                  *Initial values for internal coordinates* 
                      Name             Value
                        R0              0.5000000000
                        R               0.8000000000
                        A90            90.0000000000
                        D180          180.0000000000
--------------------------------------------------------------------------------
   Rotational constants (in cm-1): 
          0.8233882384             0.8233882384
   Rotational constants (in MHz): 
      24684.5618452264         24684.5618452264
********************************************************************************
   The full molecular point group is DXh .
   The largest Abelian subgroup of the full molecular point group is D2h .
   The computational point group is C1  .
********************************************************************************
--------------------------------------------------------------------------------
   Analysis of internal coordinates specified by Z-matrix 
--------------------------------------------------------------------------------
   *The nuclear repulsion energy is   84.668335999999982 a.u.
   *There are   2 degrees of freedom within the tot. symm. molecular subspace.
   *Z-matrix requests optimization of   0 coordinates.
   *The optimization is constrained.
   *The following   1 parameters can have non-zero 
    derivatives within the totally symmetric subspace:
             R    [ 4]
   *The following   0 parameters are to be optimized:

   *The following coordinates must be varied in an  unconstrained optimization.
             R    [ 4]
--------------------------------------------------------------------------------


 ----------------------------------------------------------------
         Coordinates used in calculation (QCOMP) 
 ----------------------------------------------------------------
 Z-matrix   Atomic            Coordinates (in bohr)
  Symbol    Number           X              Y              Z
 ----------------------------------------------------------------
     X         0        -0.94486326    -0.00000000    -0.00000000
     C         6         0.00000000    -0.00000000     0.00000000
     O         8         0.00000000     0.00000000    -1.51178122
     O         8        -0.00000000     0.00000000     1.51178122
 ----------------------------------------------------------------
 
   Interatomic distance matrix (Angstroms) 
 
                 X             C             O             O    
                [ 1]        [ 2]        [ 3]        [ 4]
  X    [ 1]     0.00000
  C    [ 2]     0.50000     0.00000
  O    [ 3]     0.94340     0.80000     0.00000
  O    [ 4]     0.94340     0.80000     1.60000     0.00000
   Rotational constants (order x, y, z, in cm-1): 
          0.8233882384             0.0000000000
   Rotational constants (order x, y, z, in MHz): 
      24684.5618452264             0.0000000000
  GENBAS file not present.   Using default GENBAS. 
 --invoking executable--
/home/james.thorpe/bin/cfour17-Feb15/bin/set_genbas
--executable set_genbas finished with status     0 in        0.03 seconds (walltime).
  ECPDATA file not present.   Using default ECPDATA. 
  There are   15 basis functions.
 @GEOPT-W, Archive file not created for single-point calculation.
 @CHECKOUT-I, Total execution time (CPU/WALL):        0.15/       0.23 seconds.
--executable xjoda finished with status     0 in        0.26 seconds (walltime).
 --invoking executable--
/home/james.thorpe/bin/cfour17-Feb15/bin/xvmol
 SERIAL VERSION OF MOLECULE STARTED
********************************************************************************
                    INPUT FROM MOL FILE
********************************************************************************
INTGRL        1    0    1    0    0    0    0    0    0                         
         *** CFOUR Program System (Release V0.1) ***                            
CO2                                                                             
    3    0            0.10E-08              0    0                              
   9999.00      3.00                                                            
          6.00000000    1    2    1    1                                        
C #1   0.000000000000000  -0.000000000000000   0.000000000000000                
    6    2                                                                      
   71.6168373000000       0.154329000000000       0.000000000000000E+000        
   13.0450963000000       0.535328100000000       0.000000000000000E+000        
   3.53051220000000       0.444634500000000       0.000000000000000E+000        
   2.94124940000000       0.000000000000000E+000 -9.996720000000001E-002        
  0.683483100000000       0.000000000000000E+000  0.399512800000000             
  0.222289900000000       0.000000000000000E+000  0.700115500000000             
    3    1                                                                      
   2.94124940000000       0.155916300000000                                     
  0.683483100000000       0.607683700000000                                     
  0.222289900000000       0.391957400000000                                     
          8.00000000    1    2    1    1                                        
O #2   0.000000000000000   0.000000000000000  -1.511781216534125                
    6    2                                                                      
   130.709321400000       0.154329000000000       0.000000000000000E+000        
   23.8088661000000       0.535328100000000       0.000000000000000E+000        
   6.44360830000000       0.444634500000000       0.000000000000000E+000        
   5.03315130000000       0.000000000000000E+000 -9.996720000000001E-002        
   1.16959610000000       0.000000000000000E+000  0.399512800000000             
  0.380389000000000       0.000000000000000E+000  0.700115500000000             
    3    1                                                                      
   5.03315130000000       0.155916300000000                                     
   1.16959610000000       0.607683700000000                                     
  0.380389000000000       0.391957400000000                                     
          8.00000000    1    2    1    1                                        
O #3  -0.000000000000000   0.000000000000000   1.511781216534125                
    6    2                                                                      
   130.709321400000       0.154329000000000       0.000000000000000E+000        
   23.8088661000000       0.535328100000000       0.000000000000000E+000        
   6.44360830000000       0.444634500000000       0.000000000000000E+000        
   5.03315130000000       0.000000000000000E+000 -9.996720000000001E-002        
   1.16959610000000       0.000000000000000E+000  0.399512800000000             
  0.380389000000000       0.000000000000000E+000  0.700115500000000             
    3    1                                                                      
   5.03315130000000       0.155916300000000                                     
   1.16959610000000       0.607683700000000                                     
  0.380389000000000       0.391957400000000                                     
FINISH                                                                          
 
********************************************************************************
 ONE- AND TWO-ELECTRON INTEGRALS OVER SYMMETRY-ADAPTED AOS ARE CALCULATED.

  SPHERICAL HARMONICS ARE USED.
  
  INTEGRALS LESS THAN  0.10E-13 ARE NEGLECTED.

  NUCLEAR REPULSION ENERGY :   84.6683360000 A.U.
  @MOLECU-I, ONE ELECTRON INTEGRALS (CPU/WALL):        0.01/       0.01 SECONDS.
  @TWOEL-I,       2369 INTEGRALS OF SYMMETRY TYPE  I I I I
  @TWOEL-I, TOTAL NUMBER OF 2-E INTEGRALS       2369.
  @MOLECU-I, TWO ELECTRON INTEGRALS (CPU/WALL):        0.01/       0.02 SECONDS.
 @CHECKOUT-I, Total execution time (CPU/WALL):        0.02/       0.03 seconds.

Running with 1 threads/proc

--executable xvmol finished with status     0 in        0.05 seconds (walltime).
 --invoking executable--
/home/james.thorpe/bin/cfour17-Feb15/bin/xvmol2ja
 @GETMEM-I,  Allocated     762 MB of main memory.
 @CHECKOUT-I, Total execution time (CPU/WALL):        0.01/       0.01 seconds.
--executable xvmol2ja finished with status     0 in        0.02 seconds (walltime).
 --invoking executable--
/home/james.thorpe/bin/cfour17-Feb15/bin/xvscf
  There are   15 functions in the AO basis.

  There are 1 irreducible representations.

       Irrep        # of functions
         1                 15


  Parameters for SCF calculation: 
        SCF reference function:  RHF  
  Maximum number of iterations:  150
     Full symmetry point group: DXh 
     Computational point group: C1  
        Initial density matrix: MOREAD                 
     SCF convergence tolerance: 10**(- 7)
  DIIS convergence acceleration:  ON
          Latest start for DIIS:   8
                     DIIS order:   6

  Memory information:      56653 words required.
  Fock matrices are constructed from AO integral file.
 @GETMEM-I,  Allocated       0 MB of main memory.
  Initialization and symmetry analysis required      0.001 seconds.

   Smallest overlap matrix eigenvalues 
     Symmetry    Eigenvalue    
         1      .2813855434D-01              
  @INITGES-I, Occupancies from core Hamiltonian:

          Alpha population by irrep:  11
           Beta population by irrep:  11


  --------------------------------------------------------------------
  Iteration         Total Energy            Largest Density Difference
  --------------------------------------------------------------------
       0            84.668335999999968              0.0000000000D+00
       1          -177.358298433473635              0.1303598641D+02
  calling rpp 
       2          -183.156311545657445              0.1236009223D+02
  calling rpp 
       3          -183.320733278871955              0.5070915330D+00
  calling rpp 
       4          -183.323070473885309              0.8919570180D-01
  calling rpp 
       5          -183.323224308176975              0.2163437170D-01
  calling rpp 
       6          -183.323226407868503              0.1761968383D-02
  calling rpp 
       7          -183.323226412889483              0.8505435734D-04
  calling rpp 
       8          -183.323226412940016              0.9192954578D-05
  calling rpp 
       9          -183.323226412940357              0.1167619721D-05
  calling rpp 
      10          -183.323226412940414              0.1559569658D-06
  calling rpp 

  SCF has converged.

 Density matrix saved to file den.dat
 total electron number:   22.0000000000000     
     E(SCF)=      -183.323226412940301              0.1133174199D-07

  Eigenvector printing suppressed.

 @PUTMOS-I, Writing converged MOs to NEWMOS. 
 @PUTMOS-I, Symmetry   1 Full Blocks  3 Partial Blocksize   3
 @PUTFOCK-I, Writing converged Fock matrix to NEWFOCK. 
 @PUTFOCK-I, Symmetry   1 Full Blocks  3 Partial Blocksize   3


 
  ORBITAL EIGENVALUES (ALPHA)  (1H = 27.2113834 eV)

       MO #        E(hartree)               E(eV)           FULLSYM    COMPSYM
       ----   --------------------   --------------------   -------   ---------
    1     1         -20.5089546563        -558.0770282845    SGg+         A (1)
    2     2         -20.5084109686        -558.0622337913    SGu+         A (1)
    3     3         -11.6004145301        -315.6633273773    SGg+         A (1)
    4     4          -1.7858703233         -48.5960020694    SGg+         A (1)
    5     5          -1.7126533636         -46.6036673091    SGu+         A (1)
    6     6          -0.9879926164         -26.8846458814    PIu          A (1)
    7     7          -0.9879926164         -26.8846458813    PIu          A (1)
    8     8          -0.6721702892         -18.2906834482    SGu+         A (1)
    9     9          -0.6622446500         -18.0205930755    SGg+         A (1)
   10    10          -0.5275295216         -14.3548080661    PIg          A (1)
   11    11          -0.5275295215         -14.3548080646    PIg          A (1)
  +++++++++++++++++++++++++++++++++++++++++++++++++++++++++++++++++++++++++++++
   12    12           0.7381205270          20.0852806556    PIu          A (1)
   13    13           0.7381205270          20.0852806556    PIu          A (1)
   14    14           0.8922237434          24.2786423597    SGg+         A (1)
   15    15           3.3523373669          91.2217373773    SGu+         A (1)


  VSCF finished.

 @CHECKOUT-I, Total execution time (CPU/WALL):        0.01/       0.03 seconds.
--executable xvscf finished with status     0 in        0.05 seconds (walltime).
 --invoking executable--
/home/james.thorpe/bin/cfour17-Feb15/bin/xvtran
 @GETMEM-I,  Allocated     762 MB of main memory.
  Partial RHF integral transformation
  Transformation of IIII integrals :
  1 pass through the AO integral file was required.
        2369 AO integrals were read.
        5956 MO integrals were written to HF2.
  Summary of active molecular orbitals: 
------------------------------------------------------------------------
 
  Index      Eigenvalue    Symmetry    Index      Eigenvalue    Symmetry
------------------------------------------------------------------------
     1       -20.5089547        1         9        -0.6622446        1
     2       -20.5084110        1        10        -0.5275295        1
     3       -11.6004145        1        11        -0.5275295        1
     4        -1.7858703        1        12         0.7381205        1
     5        -1.7126534        1        13         0.7381205        1
     6        -0.9879926        1        14         0.8922237        1
     7        -0.9879926        1        15         3.3523374        1
     8        -0.6721703        1
------------------------------------------------------------------------
 @CHECKOUT-I, Total execution time (CPU/WALL):        0.01/       0.01 seconds.
--executable xvtran finished with status     0 in        0.03 seconds (walltime).
 --invoking executable--
/home/james.thorpe/bin/cfour17-Feb15/bin/xintprc
 @GETMEM-I,  Allocated     762 MB of main memory.
  Processing integrals for MBPT(2) calculation.
  @GMOIAA-I, Processing MO integrals for spin case AA.
  @GMOIAA-I, Generation of integral list completed.
                      TYPE                NUMBER
                      ----               --------
                      PPPP                     0
                      PPPH                     0
                      PPHH                   791
                      PHPH                     0
                      PHHH                     0
                      HHHH                     0

                     TOTAL                   791

  @FORMT2-I, Second-order MP correlation energies:
            ------------------------------------------------
            E(SCF)                  =   -183.323226412940 a.u.
            E2(AA)                  =     -0.011001822459 a.u.
            E2(AB)                  =     -0.067863676761 a.u.
            E2(TOT)                 =     -0.089867321680 a.u.
            Total MP2 energy        =   -183.413093734620 a.u.
            ------------------------------------------------
   Largest T2 amplitudes for spin case AB:
       _       _                 _       _                 _       _
   i   j   a   b             i   j   a   b             i   j   a   b
-----------------------------------------------------------------------------
[ 11  11  13  13]-0.06212 [ 10  10  12  12]-0.06212 [ 11  10  13  12]-0.05180
[ 10  11  12  13]-0.05180 [  7   7  12  12]-0.02715 [  6   6  13  13]-0.02715
[ 11   5  13  14]-0.01957 [  5  11  14  13]-0.01957 [ 10   5  12  14]-0.01957
[  5  10  14  12]-0.01957 [  7   6  12  13]-0.01938 [  6   7  13  12]-0.01938
[  9   9  13  13]-0.01555 [  9   9  12  12]-0.01555 [  5   5  14  14]-0.01380
-----------------------------------------------------------------------------
   Norm of T2AB vector (     1936 symmetry allowed elements):  0.1460039426.
-----------------------------------------------------------------------------
 @CHECKOUT-I, Total execution time (CPU/WALL):        0.01/       0.01 seconds.
--executable xintprc finished with status     0 in        0.03 seconds (walltime).
 --invoking executable--
/home/james.thorpe/bin/cfour17-Feb15/bin/xvcc
 @GETMEM-I,  Allocated     762 MB of main memory.
   MBPT(2) energy will be calculated.
   The total correlation energy is -0.089867321680 a.u.
  -----------------------------------------------------------
       Correction         Increment           Cumulative
  -----------------------------------------------------------
        D-MBPT(2)       -0.089867321680    -183.413093734620
  -----------------------------------------------------------
  Total MBPT(2)       energy:    -183.413093734620 a.u.
 @CHECKOUT-I, Total execution time (CPU/WALL):        0.00/       0.01 seconds.
--executable xvcc finished with status     0 in        0.02 seconds (walltime).
  The final electronic energy is      -183.413093734619906 a.u. 
  This computation required                            0.49 seconds (walltime).
