[Molden Format]                                                                 
[ATOMS] AU                                                                      
H        1    1        0.0000000000        0.0000000000        0.0000000000     
[Molden Format]                                                                 
[GTO]                                                                           
  1 0
s   3 1.00
   3.4252509000000000       0.15432899999999999                                 
  0.62391370000000002       0.53532809999999997                                 
  0.16885539999999999       0.44463449999999999                                 

                                                                                
