[Molden Format]                                                                 
[ATOMS] AU                                                                      
HE       1    2        0.0000000000        0.0000000000        0.0000000000     
[Molden Format]                                                                 
[GTO]                                                                           
  1 0
s   3 1.00
   6.3624213999999997       0.15432899999999999                                 
   1.1589229999999999       0.53532809999999997                                 
  0.31364979999999998       0.44463449999999999                                 

                                                                                
