[Molden Format]                                                                 
[ATOMS] AU                                                                      
H        1    1       -0.0000000000        0.0000000000        1.7433135968     
C        2    6        0.0000000000        0.0000000000       -0.1464129239     
[Molden Format]                                                                 
[GTO]                                                                           
  1 0
s   3 1.00
   3.4252509000000000       0.15432899999999999                                 
  0.62391370000000002       0.53532809999999997                                 
  0.16885539999999999       0.44463449999999999                                 

  2 0
s   6 1.00
   71.616837300000000       0.15432899999999999                                 
   13.045096300000001       0.53532809999999997                                 
   3.5305122000000000       0.44463449999999999                                 
   2.9412493999999998        0.0000000000000000                                 
  0.68348310000000001        0.0000000000000000                                 
  0.22228990000000001        0.0000000000000000                                 
s   6 1.00
   71.616837300000000        0.0000000000000000                                 
   13.045096300000001        0.0000000000000000                                 
   3.5305122000000000        0.0000000000000000                                 
   2.9412493999999998       -9.9967200000000006E-002                            
  0.68348310000000001       0.39951280000000000                                 
  0.22228990000000001       0.70011550000000000                                 
p   3 1.00
   2.9412493999999998       0.15591630000000001                                 
  0.68348310000000001       0.60768370000000005                                 
  0.22228990000000001       0.39195740000000001                                 

                                                                                
