[Molden Format]                                                                 
[ATOMS] AU                                                                      
H        1    1       -0.0000000000        0.0000000000        1.7945304811     
F        2    9        0.0000000000        0.0000000000       -0.0951960396     
[Molden Format]                                                                 
[GTO]                                                                           
  1 0
s   3 1.00
   3.4252509000000000       0.15432899999999999                                 
  0.62391370000000002       0.53532809999999997                                 
  0.16885539999999999       0.44463449999999999                                 

  2 0
s   6 1.00
   166.67913400000000       0.15432899999999999                                 
   30.360812299999999       0.53532809999999997                                 
   8.2168206999999995       0.44463449999999999                                 
   6.4648032000000004        0.0000000000000000                                 
   1.5022812000000001        0.0000000000000000                                 
  0.48858849999999998        0.0000000000000000                                 
s   6 1.00
   166.67913400000000        0.0000000000000000                                 
   30.360812299999999        0.0000000000000000                                 
   8.2168206999999995        0.0000000000000000                                 
   6.4648032000000004       -9.9967200000000006E-002                            
   1.5022812000000001       0.39951280000000000                                 
  0.48858849999999998       0.70011550000000000                                 
p   3 1.00
   6.4648032000000004       0.15591630000000001                                 
   1.5022812000000001       0.60768370000000005                                 
  0.48858849999999998       0.39195740000000001                                 

                                                                                
