[Molden Format]                                                                 
[ATOMS] AU                                                                      
H        1    1       -0.0000000000        0.0000000000        0.9448632603     
H        2    1        0.0000000000        0.0000000000       -0.9448632603     
[Molden Format]                                                                 
[GTO]                                                                           
  1 0
s   3 1.00
   3.4252509000000000       0.15432899999999999                                 
  0.62391370000000002       0.53532809999999997                                 
  0.16885539999999999       0.44463449999999999                                 

  2 0
s   3 1.00
   3.4252509000000000       0.15432899999999999                                 
  0.62391370000000002       0.53532809999999997                                 
  0.16885539999999999       0.44463449999999999                                 

                                                                                
[MO]
 Sym= A
 Ene= -0.48444160341666437     
 Spin= Alpha
 Occup= 1.0
  1        0.5780280075
  2        0.5780280075
 Sym= A
 Ene=  0.45750184157043577     
 Spin= Alpha
 Occup= 0.0
  1        0.9965029895
  2       -0.9965029895
