[Molden Format]                                                                 
[ATOMS] AU                                                                      
O        1    8       -0.0000000000        0.0000000000        1.5117812165     
C        2    6        0.0000000000        0.0000000000       -0.0000000000     
O        3    8        0.0000000000        0.0000000000       -1.5117812165     
[Molden Format]                                                                 
[GTO]                                                                           
  1 0
s   6 1.00
   130.70932139999999       0.15432899999999999                                 
   23.808866099999999       0.53532809999999997                                 
   6.4436083000000002       0.44463449999999999                                 
   5.0331513000000001        0.0000000000000000                                 
   1.1695960999999999        0.0000000000000000                                 
  0.38038899999999998        0.0000000000000000                                 
s   6 1.00
   130.70932139999999        0.0000000000000000                                 
   23.808866099999999        0.0000000000000000                                 
   6.4436083000000002        0.0000000000000000                                 
   5.0331513000000001       -9.9967200000000006E-002                            
   1.1695960999999999       0.39951280000000000                                 
  0.38038899999999998       0.70011550000000000                                 
p   3 1.00
   5.0331513000000001       0.15591630000000001                                 
   1.1695960999999999       0.60768370000000005                                 
  0.38038899999999998       0.39195740000000001                                 

  2 0
s   6 1.00
   71.616837300000000       0.15432899999999999                                 
   13.045096300000001       0.53532809999999997                                 
   3.5305122000000000       0.44463449999999999                                 
   2.9412493999999998        0.0000000000000000                                 
  0.68348310000000001        0.0000000000000000                                 
  0.22228990000000001        0.0000000000000000                                 
s   6 1.00
   71.616837300000000        0.0000000000000000                                 
   13.045096300000001        0.0000000000000000                                 
   3.5305122000000000        0.0000000000000000                                 
   2.9412493999999998       -9.9967200000000006E-002                            
  0.68348310000000001       0.39951280000000000                                 
  0.22228990000000001       0.70011550000000000                                 
p   3 1.00
   2.9412493999999998       0.15591630000000001                                 
  0.68348310000000001       0.60768370000000005                                 
  0.22228990000000001       0.39195740000000001                                 

  3 0
s   6 1.00
   130.70932139999999       0.15432899999999999                                 
   23.808866099999999       0.53532809999999997                                 
   6.4436083000000002       0.44463449999999999                                 
   5.0331513000000001        0.0000000000000000                                 
   1.1695960999999999        0.0000000000000000                                 
  0.38038899999999998        0.0000000000000000                                 
s   6 1.00
   130.70932139999999        0.0000000000000000                                 
   23.808866099999999        0.0000000000000000                                 
   6.4436083000000002        0.0000000000000000                                 
   5.0331513000000001       -9.9967200000000006E-002                            
   1.1695960999999999       0.39951280000000000                                 
  0.38038899999999998       0.70011550000000000                                 
p   3 1.00
   5.0331513000000001       0.15591630000000001                                 
   1.1695960999999999       0.60768370000000005                                 
  0.38038899999999998       0.39195740000000001                                 

                                                                                
[MO]
 Sym= A
 Ene=  -20.508954656252179     
 Spin= Alpha
 Occup= 1.0
  1        0.7021145912
  2        0.0314421716
  3        0.0000000000
  4        0.0000000000
  5       -0.0104720441
  6       -0.0014560580
  7       -0.0325572654
  8       -0.0000000000
  9       -0.0000000000
 10        0.0000000000
 11        0.7021145912
 12        0.0314421716
 13        0.0000000000
 14       -0.0000000000
 15        0.0104720441
 Sym= A
 Ene=  -20.508410968599346     
 Spin= Alpha
 Occup= 1.0
  1        0.7025927615
  2        0.0364128368
  3        0.0000000000
  4        0.0000000000
  5       -0.0134377022
  6       -0.0000000000
  7       -0.0000000000
  8        0.0000000000
  9       -0.0000000000
 10       -0.0258743418
 11       -0.7025927615
 12       -0.0364128368
 13       -0.0000000000
 14        0.0000000000
 15       -0.0134377022
 Sym= A
 Ene=  -11.600414530094394     
 Spin= Alpha
 Occup= 1.0
  1        0.0066278880
  2       -0.0123542673
  3        0.0000000000
  4        0.0000000000
  5        0.0159704354
  6       -0.9894308438
  7       -0.0016415720
  8       -0.0000000000
  9        0.0000000000
 10       -0.0000000000
 11        0.0066278880
 12       -0.0123542673
 13        0.0000000000
 14       -0.0000000000
 15       -0.0159704354
 Sym= A
 Ene=  -1.7858703232765034     
 Spin= Alpha
 Occup= 1.0
  1        0.1588729523
  2       -0.5680948820
  3       -0.0000000000
  4        0.0000000000
  5        0.2801123204
  6        0.3001241024
  7       -0.0549986396
  8       -0.0000000000
  9       -0.0000000000
 10        0.0000000000
 11        0.1588729523
 12       -0.5680948820
 13       -0.0000000000
 14        0.0000000000
 15       -0.2801123204
 Sym= A
 Ene=  -1.7126533636322756     
 Spin= Alpha
 Occup= 1.0
  1        0.1746237531
  2       -0.3540706404
  3       -0.0000000000
  4       -0.0000000000
  5        0.2446155460
  6        0.0000000000
  7       -0.0000000000
  8       -0.0000000000
  9       -0.0000000000
 10       -0.5264173614
 11       -0.1746237531
 12        0.3540706404
 13        0.0000000000
 14        0.0000000000
 15        0.2446155460
 Sym= A
 Ene= -0.98799261640783853     
 Spin= Alpha
 Occup= 1.0
  1       -0.0000000000
  2        0.0000000000
  3        0.3621068204
  4       -0.1379198698
  5        0.0000000000
  6        0.0000000000
  7       -0.0000000000
  8        0.5108221230
  9       -0.1945628106
 10       -0.0000000000
 11       -0.0000000000
 12        0.0000000000
 13        0.3621068204
 14       -0.1379198698
 15       -0.0000000000
 Sym= A
 Ene= -0.98799261640368563     
 Spin= Alpha
 Occup= 1.0
  1        0.0000000000
  2       -0.0000000000
  3        0.1379198698
  4        0.3621068204
  5       -0.0000000000
  6        0.0000000000
  7       -0.0000000000
  8        0.1945628106
  9        0.5108221230
 10        0.0000000000
 11       -0.0000000000
 12        0.0000000000
 13        0.1379198698
 14        0.3621068204
 15       -0.0000000000
 Sym= A
 Ene= -0.67217028915298371     
 Spin= Alpha
 Occup= 1.0
  1        0.0797455121
  2       -0.4905900012
  3        0.0000000000
  4       -0.0000000000
  5       -0.5865293897
  6        0.0000000000
  7       -0.0000000000
  8        0.0000000000
  9       -0.0000000000
 10        0.2900782047
 11       -0.0797455121
 12        0.4905900012
 13        0.0000000000
 14        0.0000000000
 15       -0.5865293897
 Sym= A
 Ene= -0.66224464999104793     
 Spin= Alpha
 Occup= 1.0
  1        0.0915259296
  2       -0.4185688262
  3        0.0000000000
  4       -0.0000000000
  5       -0.5807277350
  6       -0.1709869538
  7        0.0986375113
  8        0.0000000000
  9       -0.0000000000
 10        0.0000000000
 11        0.0915259296
 12       -0.4185688261
 13       -0.0000000000
 14        0.0000000000
 15        0.5807277350
 Sym= A
 Ene= -0.52752952156387956     
 Spin= Alpha
 Occup= 1.0
  1        0.0000000000
  2       -0.0000000000
  3        0.2590408843
  4        0.6790520668
  5       -0.0000000000
  6       -0.0000000000
  7        0.0000000000
  8       -0.0000000000
  9        0.0000000000
 10       -0.0000000000
 11       -0.0000000000
 12        0.0000000000
 13       -0.2590408843
 14       -0.6790520668
 15       -0.0000000000
 Sym= A
 Ene= -0.52752952150866417     
 Spin= Alpha
 Occup= 1.0
  1       -0.0000000000
  2        0.0000000000
  3        0.6790520668
  4       -0.2590408843
  5        0.0000000000
  6        0.0000000000
  7       -0.0000000000
  8       -0.0000000000
  9       -0.0000000000
 10       -0.0000000000
 11       -0.0000000000
 12        0.0000000000
 13       -0.6790520668
 14        0.2590408843
 15       -0.0000000000
 Sym= A
 Ene=  0.73812052700043040     
 Spin= Alpha
 Occup= 0.0
  1       -0.0000000000
  2        0.0000000000
  3        0.2822328100
  4        0.7420497683
  5       -0.0000000000
  6        0.0000000000
  7       -0.0000000000
  8       -0.4123539300
  9       -1.0841657218
 10        0.0000000000
 11       -0.0000000000
 12        0.0000000000
 13        0.2822328100
 14        0.7420497683
 15        0.0000000000
 Sym= A
 Ene=  0.73812052700148734     
 Spin= Alpha
 Occup= 0.0
  1        0.0000000000
  2       -0.0000000000
  3        0.7420497683
  4       -0.2822328101
  5        0.0000000000
  6        0.0000000000
  7        0.0000000000
  8       -1.0841657218
  9        0.4123539300
 10        0.0000000000
 11        0.0000000000
 12       -0.0000000000
 13        0.7420497683
 14       -0.2822328101
 15       -0.0000000000
 Sym= A
 Ene=  0.89222374338159405     
 Spin= Alpha
 Occup= 0.0
  1        0.1158122240
  2       -1.4134576041
  3       -0.0000000000
  4        0.0000000000
  5        0.7494220053
  6       -0.0078677411
  7        2.6932891273
  8        0.0000000000
  9       -0.0000000000
 10       -0.0000000000
 11        0.1158122240
 12       -1.4134576041
 13       -0.0000000000
 14        0.0000000000
 15       -0.7494220053
 Sym= A
 Ene=   3.3523373669183920     
 Spin= Alpha
 Occup= 0.0
  1        0.0659506885
  2       -2.8895854576
  3        0.0000000000
  4        0.0000000000
  5        1.3351614314
  6       -0.0000000000
  7        0.0000000000
  8       -0.0000000000
  9       -0.0000000000
 10        3.8834715347
 11       -0.0659506885
 12        2.8895854576
 13        0.0000000000
 14        0.0000000000
 15        1.3351614314
