[Molden Format]                                                                 
[ATOMS] AU                                                                      
O        1    8        0.0000000000        0.0000000000       -1.8897265207     
C        2    6       -0.0000000000        0.0000000000        0.0000000000     
O        3    8       -0.0000000000        0.0000000000        1.8897265207     
[Molden Format]                                                                 
[GTO]                                                                           
  1 0
s   6 1.00
   130.70932139999999       0.15432899999999999                                 
   23.808866099999999       0.53532809999999997                                 
   6.4436083000000002       0.44463449999999999                                 
   5.0331513000000001        0.0000000000000000                                 
   1.1695960999999999        0.0000000000000000                                 
  0.38038899999999998        0.0000000000000000                                 
s   6 1.00
   130.70932139999999        0.0000000000000000                                 
   23.808866099999999        0.0000000000000000                                 
   6.4436083000000002        0.0000000000000000                                 
   5.0331513000000001       -9.9967200000000006E-002                            
   1.1695960999999999       0.39951280000000000                                 
  0.38038899999999998       0.70011550000000000                                 
p   3 1.00
   5.0331513000000001       0.15591630000000001                                 
   1.1695960999999999       0.60768370000000005                                 
  0.38038899999999998       0.39195740000000001                                 

  2 0
s   6 1.00
   71.616837300000000       0.15432899999999999                                 
   13.045096300000001       0.53532809999999997                                 
   3.5305122000000000       0.44463449999999999                                 
   2.9412493999999998        0.0000000000000000                                 
  0.68348310000000001        0.0000000000000000                                 
  0.22228990000000001        0.0000000000000000                                 
s   6 1.00
   71.616837300000000        0.0000000000000000                                 
   13.045096300000001        0.0000000000000000                                 
   3.5305122000000000        0.0000000000000000                                 
   2.9412493999999998       -9.9967200000000006E-002                            
  0.68348310000000001       0.39951280000000000                                 
  0.22228990000000001       0.70011550000000000                                 
p   3 1.00
   2.9412493999999998       0.15591630000000001                                 
  0.68348310000000001       0.60768370000000005                                 
  0.22228990000000001       0.39195740000000001                                 

  3 0
s   6 1.00
   130.70932139999999       0.15432899999999999                                 
   23.808866099999999       0.53532809999999997                                 
   6.4436083000000002       0.44463449999999999                                 
   5.0331513000000001        0.0000000000000000                                 
   1.1695960999999999        0.0000000000000000                                 
  0.38038899999999998        0.0000000000000000                                 
s   6 1.00
   130.70932139999999        0.0000000000000000                                 
   23.808866099999999        0.0000000000000000                                 
   6.4436083000000002        0.0000000000000000                                 
   5.0331513000000001       -9.9967200000000006E-002                            
   1.1695960999999999       0.39951280000000000                                 
  0.38038899999999998       0.70011550000000000                                 
p   3 1.00
   5.0331513000000001       0.15591630000000001                                 
   1.1695960999999999       0.60768370000000005                                 
  0.38038899999999998       0.39195740000000001                                 

                                                                                
[MO]
 Sym= A
 Ene=  -20.401570868839542     
 Spin= Alpha
 Occup= 1.0
  1        0.7026945942
  2        0.0254438561
  3        0.0000000000
  4        0.0000000000
  5        0.0083074104
  6       -0.0000000000
  7        0.0000000000
  8        0.0000000000
  9       -0.0000000000
 10        0.0170602809
 11       -0.7026945943
 12       -0.0254438561
 13       -0.0000000000
 14        0.0000000000
 15        0.0083074104
 Sym= A
 Ene=  -20.401502482120975     
 Spin= Alpha
 Occup= 1.0
  1        0.7026753819
  2        0.0220699647
  3       -0.0000000000
  4        0.0000000000
  5        0.0063869195
  6       -0.0000125258
  7       -0.0167829170
  8        0.0000000000
  9       -0.0000000000
 10        0.0000000000
 11        0.7026753818
 12        0.0220699647
 13       -0.0000000000
 14        0.0000000000
 15       -0.0063869195
 Sym= A
 Ene=  -11.350123316180170     
 Spin= Alpha
 Occup= 1.0
  1        0.0013767435
  2        0.0025079685
  3       -0.0000000000
  4        0.0000000000
  5       -0.0036878160
  6       -0.9929288763
  7       -0.0251556929
  8       -0.0000000000
  9       -0.0000000000
 10       -0.0000000000
 11        0.0013767435
 12        0.0025079685
 13        0.0000000000
 14        0.0000000000
 15        0.0036878160
 Sym= A
 Ene=  -1.5976667501759383     
 Spin= Alpha
 Occup= 1.0
  1        0.1486290132
  2       -0.5049681223
  3        0.0000000000
  4        0.0000000000
  5       -0.2063436995
  6        0.2068242537
  7       -0.2688560927
  8        0.0000000000
  9       -0.0000000000
 10        0.0000000000
 11        0.1486290132
 12       -0.5049681223
 13        0.0000000000
 14       -0.0000000000
 15        0.2063436995
 Sym= A
 Ene=  -1.5211209921479305     
 Spin= Alpha
 Occup= 1.0
  1        0.1603428318
  2       -0.4544075498
  3       -0.0000000000
  4        0.0000000000
  5       -0.1670540419
  6       -0.0000000000
  7        0.0000000000
  8        0.0000000000
  9       -0.0000000000
 10        0.3951517342
 11       -0.1603428318
 12        0.4544075498
 13        0.0000000000
 14       -0.0000000000
 15       -0.1670540419
 Sym= A
 Ene= -0.76973487954537345     
 Spin= Alpha
 Occup= 1.0
  1       -0.0000000000
  2        0.0000000000
  3        0.4290909247
  4        0.0078287110
  5       -0.0000000000
  6        0.0000000000
  7       -0.0000000000
  8        0.5629008699
  9        0.0102700569
 10        0.0000000000
 11       -0.0000000000
 12        0.0000000000
 13        0.4290909247
 14        0.0078287110
 15        0.0000000000
 Sym= A
 Ene= -0.76973487954536846     
 Spin= Alpha
 Occup= 1.0
  1       -0.0000000000
  2        0.0000000000
  3        0.0078287110
  4       -0.4290909247
  5       -0.0000000000
  6        0.0000000000
  7       -0.0000000000
  8        0.0102700569
  9       -0.5629008699
 10        0.0000000000
 11       -0.0000000000
 12        0.0000000000
 13        0.0078287110
 14       -0.4290909247
 15        0.0000000000
 Sym= A
 Ene= -0.67368744107222767     
 Spin= Alpha
 Occup= 1.0
  1        0.1063997659
  2       -0.5185493996
  3        0.0000000000
  4       -0.0000000000
  5        0.4818146612
  6       -0.1438208066
  7        0.3772365142
  8        0.0000000000
  9       -0.0000000000
 10        0.0000000000
 11        0.1063997659
 12       -0.5185493996
 13        0.0000000000
 14       -0.0000000000
 15       -0.4818146612
 Sym= A
 Ene= -0.63105231914941129     
 Spin= Alpha
 Occup= 1.0
  1        0.0854305655
  2       -0.4978591142
  3        0.0000000000
  4       -0.0000000000
  5        0.5294601344
  6        0.0000000000
  7       -0.0000000000
  8        0.0000000000
  9       -0.0000000000
 10       -0.3729058056
 11       -0.0854305655
 12        0.4978591142
 13        0.0000000000
 14        0.0000000000
 15        0.5294601344
 Sym= A
 Ene= -0.44035886940116198     
 Spin= Alpha
 Occup= 1.0
  1       -0.0000000000
  2       -0.0000000000
  3        0.7077197356
  4       -0.0846478057
  5       -0.0000000000
  6        0.0000000000
  7       -0.0000000000
  8       -0.0000000000
  9        0.0000000000
 10        0.0000000000
 11       -0.0000000000
 12        0.0000000000
 13       -0.7077197356
 14        0.0846478057
 15       -0.0000000000
 Sym= A
 Ene= -0.44035886940115843     
 Spin= Alpha
 Occup= 1.0
  1        0.0000000000
  2       -0.0000000000
  3        0.0846478057
  4        0.7077197356
  5        0.0000000000
  6       -0.0000000000
  7        0.0000000000
  8       -0.0000000000
  9       -0.0000000000
 10       -0.0000000000
 11       -0.0000000000
 12        0.0000000000
 13       -0.0846478057
 14       -0.7077197356
 15       -0.0000000000
 Sym= A
 Ene=  0.46832194255012261     
 Spin= Alpha
 Occup= 0.0
  1        0.0000000000
  2        0.0000000000
  3        0.6557991990
  4       -0.0429320455
  5       -0.0000000000
  6        0.0000000000
  7        0.0000000000
  8       -0.9647396482
  9        0.0631569031
 10        0.0000000000
 11        0.0000000000
 12       -0.0000000000
 13        0.6557991990
 14       -0.0429320455
 15        0.0000000000
 Sym= A
 Ene=  0.46832194255012904     
 Spin= Alpha
 Occup= 0.0
  1       -0.0000000000
  2        0.0000000000
  3        0.0429320455
  4        0.6557991990
  5        0.0000000000
  6        0.0000000000
  7       -0.0000000000
  8       -0.0631569031
  9       -0.9647396482
 10        0.0000000000
 11        0.0000000000
 12       -0.0000000000
 13        0.0429320455
 14        0.6557991990
 15        0.0000000000
 Sym= A
 Ene=  0.73921837985649674     
 Spin= Alpha
 Occup= 0.0
  1        0.1016671550
  2       -0.8394632395
  3       -0.0000000000
  4        0.0000000000
  5       -0.7279994542
  6       -0.1654220716
  7        1.7887130274
  8        0.0000000000
  9       -0.0000000000
 10        0.0000000000
 11        0.1016671550
 12       -0.8394632395
 13       -0.0000000000
 14       -0.0000000000
 15        0.7279994542
 Sym= A
 Ene=   2.0025507917870047     
 Spin= Alpha
 Occup= 0.0
  1        0.1042663665
  2       -1.3941691133
  3        0.0000000000
  4        0.0000000000
  5       -0.9318161102
  6       -0.0000000000
  7        0.0000000000
  8       -0.0000000000
  9       -0.0000000000
 10       -2.2443004045
 11       -0.1042663665
 12        1.3941691133
 13        0.0000000000
 14        0.0000000000
 15       -0.9318161102
